<?xml version="1.0" encoding="UTF-8"?>

<!-- generated on 2025-07-23 19:15:05 by Eclipse SUMO sumo Version 1.23.1
<sumoConfiguration xmlns:xsi="http://www.w3.org/2001/XMLSchema-instance" xsi:noNamespaceSchemaLocation="http://sumo.dlr.de/xsd/sumoConfiguration.xsd">

    <input>
        <net-file value="./real-world-simulation-withTLS/xuancheng.net.xml"/>
        <route-files value="./real-world-simulation-withTLS/xuancheng.rou.xml"/>
        <additional-files value="./real-world-simulation-withTLS/add.add.xml,./real-world-simulation-withTLS/newTLS.add.xml"/>
    </input>

    <processing>
        <collision.action value="none"/>
        <time-to-teleport value="300"/>
    </processing>

    <traci_server>
        <remote-port value="46253"/>
    </traci_server>

    <mesoscopic>
        <mesosim value="TRUE"/>
    </mesoscopic>

</sumoConfiguration>
-->

<meandata xmlns:xsi="http://www.w3.org/2001/XMLSchema-instance" xsi:noNamespaceSchemaLocation="http://sumo.dlr.de/xsd/meandata_file.xsd">
    <interval begin="0.00" end="601.00" id="test_1">
        <edge id="1025_op" sampledSeconds="0.00" departed="1" arrived="0" entered="0" left="0" laneChangedFrom="0" laneChangedTo="0"/>
        <edge id="1025_sa" sampledSeconds="0.72" traveltime="44.89" overlapTraveltime="45.26" density="0.00" laneDensity="0.00" occupancy="0.00" waitingTime="0.00" timeLoss="0.06" speed="13.31" speedRelative="0.96" departed="9" arrived="0" entered="0" left="0" laneChangedFrom="0" laneChangedTo="0"/>
        <edge id="1027_op" sampledSeconds="0.00" departed="5" arrived="0" entered="0" left="0" laneChangedFrom="0" laneChangedTo="0"/>
        <edge id="1027_sa" sampledSeconds="0.00" departed="6" arrived="0" entered="0" left="0" laneChangedFrom="0" laneChangedTo="0"/>
        <edge id="1047_op" sampledSeconds="0.00" departed="1" arrived="0" entered="0" left="0" laneChangedFrom="0" laneChangedTo="0"/>
        <edge id="1047_sa" sampledSeconds="0.37" traveltime="35.17" overlapTraveltime="35.49" density="0.00" laneDensity="0.00" occupancy="0.00" waitingTime="0.00" timeLoss="0.00" speed="15.57" speedRelative="1.12" departed="7" arrived="0" entered="0" left="0" laneChangedFrom="0" laneChangedTo="0"/>
        <edge id="1214_op" sampledSeconds="0.00" departed="4" arrived="0" entered="0" left="0" laneChangedFrom="0" laneChangedTo="0"/>
        <edge id="1214_sa" sampledSeconds="1.35" traveltime="29.30" overlapTraveltime="29.67" density="0.01" laneDensity="0.00" occupancy="0.00" waitingTime="0.00" timeLoss="0.00" speed="13.37" speedRelative="0.96" departed="8" arrived="0" entered="1" left="0" laneChangedFrom="0" laneChangedTo="0"/>
        <edge id="1215_op" sampledSeconds="0.55" traveltime="27.47" overlapTraveltime="27.95" density="0.00" laneDensity="0.00" occupancy="0.00" waitingTime="0.00" timeLoss="0.16" speed="10.45" speedRelative="0.75" departed="8" arrived="0" entered="0" left="0" laneChangedFrom="0" laneChangedTo="0"/>
        <edge id="1215_sa" sampledSeconds="0.00" departed="8" arrived="0" entered="0" left="0" laneChangedFrom="0" laneChangedTo="0"/>
        <edge id="1216_op" sampledSeconds="0.54" traveltime="38.93" overlapTraveltime="39.25" density="0.00" laneDensity="0.00" occupancy="0.00" waitingTime="0.00" timeLoss="0.00" speed="15.59" speedRelative="1.12" departed="7" arrived="0" entered="0" left="0" laneChangedFrom="0" laneChangedTo="0"/>
        <edge id="1216_sa" sampledSeconds="0.13" traveltime="46.46" overlapTraveltime="46.84" density="0.00" laneDensity="0.00" occupancy="0.00" waitingTime="0.00" timeLoss="0.00" speed="13.07" speedRelative="0.94" departed="0" arrived="0" entered="0" left="0" laneChangedFrom="0" laneChangedTo="0"/>
        <edge id="1217_op" sampledSeconds="0.00" departed="8" arrived="0" entered="0" left="0" laneChangedFrom="0" laneChangedTo="0"/>
        <edge id="1217_sa" sampledSeconds="0.55" traveltime="19.94" overlapTraveltime="20.27" density="0.00" laneDensity="0.00" occupancy="0.00" waitingTime="0.00" timeLoss="0.00" speed="15.17" speedRelative="1.09" departed="6" arrived="0" entered="0" left="0" laneChangedFrom="0" laneChangedTo="0"/>
        <edge id="1220_op" sampledSeconds="0.84" traveltime="41.73" overlapTraveltime="42.11" density="0.00" laneDensity="0.00" occupancy="0.00" waitingTime="0.00" timeLoss="0.00" speed="13.40" speedRelative="0.96" departed="0" arrived="0" entered="0" left="0" laneChangedFrom="0" laneChangedTo="0"/>
        <edge id="1220_sa" sampledSeconds="0.00" departed="8" arrived="0" entered="0" left="0" laneChangedFrom="0" laneChangedTo="0"/>
        <edge id="1221_op" sampledSeconds="0.00" departed="1" arrived="0" entered="0" left="0" laneChangedFrom="0" laneChangedTo="0"/>
        <edge id="1221_sa" sampledSeconds="0.00" departed="8" arrived="0" entered="0" left="0" laneChangedFrom="0" laneChangedTo="0"/>
        <edge id="1222_op" sampledSeconds="0.00" departed="0" arrived="0" entered="0" left="0" laneChangedFrom="0" laneChangedTo="0"/>
        <edge id="1222_sa" sampledSeconds="0.24" traveltime="16.52" overlapTraveltime="16.87" density="0.00" laneDensity="0.00" occupancy="0.00" waitingTime="0.00" timeLoss="0.00" speed="14.33" speedRelative="1.03" departed="0" arrived="0" entered="0" left="0" laneChangedFrom="0" laneChangedTo="0"/>
        <edge id="1229_op" sampledSeconds="1.07" traveltime="47.55" overlapTraveltime="48.01" density="0.00" laneDensity="0.00" occupancy="0.00" waitingTime="0.00" timeLoss="0.30" speed="10.88" speedRelative="0.78" departed="7" arrived="0" entered="0" left="0" laneChangedFrom="0" laneChangedTo="0"/>
        <edge id="1229_sa" sampledSeconds="0.00" departed="7" arrived="0" entered="0" left="0" laneChangedFrom="0" laneChangedTo="0"/>
        <edge id="15207_op" sampledSeconds="0.00" departed="0" arrived="0" entered="0" left="0" laneChangedFrom="0" laneChangedTo="0"/>
        <edge id="15207_sa" sampledSeconds="0.00" departed="0" arrived="0" entered="0" left="0" laneChangedFrom="0" laneChangedTo="0"/>
        <edge id="15217_op" sampledSeconds="0.00" departed="0" arrived="0" entered="0" left="0" laneChangedFrom="0" laneChangedTo="0"/>
        <edge id="15217_sa" sampledSeconds="0.00" departed="1" arrived="0" entered="0" left="0" laneChangedFrom="0" laneChangedTo="0"/>
        <edge id="15342_op" sampledSeconds="0.90" traveltime="94.66" overlapTraveltime="95.05" density="0.00" laneDensity="0.00" occupancy="0.00" waitingTime="0.00" timeLoss="0.00" speed="12.76" speedRelative="0.92" departed="8" arrived="0" entered="0" left="0" laneChangedFrom="0" laneChangedTo="0"/>
        <edge id="15342_sa" sampledSeconds="1.77" traveltime="84.85" overlapTraveltime="85.21" density="0.00" laneDensity="0.00" occupancy="0.00" waitingTime="0.00" timeLoss="0.01" speed="14.24" speedRelative="1.03" departed="4" arrived="0" entered="0" left="0" laneChangedFrom="0" laneChangedTo="0"/>
        <edge id="21138_op" sampledSeconds="0.00" departed="8" arrived="0" entered="0" left="0" laneChangedFrom="0" laneChangedTo="0"/>
        <edge id="21138_sa" sampledSeconds="0.00" departed="0" arrived="0" entered="0" left="0" laneChangedFrom="0" laneChangedTo="0"/>
        <edge id="21139_op" sampledSeconds="0.00" departed="0" arrived="0" entered="0" left="0" laneChangedFrom="0" laneChangedTo="0"/>
        <edge id="21139_sa" sampledSeconds="0.30" traveltime="30.87" overlapTraveltime="31.22" density="0.00" laneDensity="0.00" occupancy="0.00" waitingTime="0.00" timeLoss="0.00" speed="14.47" speedRelative="1.04" departed="0" arrived="0" entered="0" left="0" laneChangedFrom="0" laneChangedTo="0"/>
        <edge id="21140_op" sampledSeconds="0.00" departed="0" arrived="0" entered="0" left="0" laneChangedFrom="0" laneChangedTo="0"/>
        <edge id="21140_sa" sampledSeconds="0.00" departed="0" arrived="0" entered="0" left="0" laneChangedFrom="0" laneChangedTo="0"/>
        <edge id="21184_op" sampledSeconds="2.10" traveltime="40.63" overlapTraveltime="41.02" density="0.01" laneDensity="0.00" occupancy="0.00" waitingTime="0.00" timeLoss="0.20" speed="12.71" speedRelative="0.91" departed="7" arrived="0" entered="1" left="0" laneChangedFrom="0" laneChangedTo="0"/>
        <edge id="21184_sa" sampledSeconds="0.62" traveltime="36.90" overlapTraveltime="37.26" density="0.00" laneDensity="0.00" occupancy="0.00" waitingTime="0.00" timeLoss="0.00" speed="14.04" speedRelative="1.01" departed="8" arrived="0" entered="0" left="0" laneChangedFrom="0" laneChangedTo="0"/>
        <edge id="21185_op" sampledSeconds="1.04" traveltime="29.63" overlapTraveltime="30.02" density="0.00" laneDensity="0.00" occupancy="0.00" waitingTime="0.00" timeLoss="0.00" speed="13.11" speedRelative="0.94" departed="8" arrived="0" entered="1" left="0" laneChangedFrom="0" laneChangedTo="0"/>
        <edge id="21185_sa" sampledSeconds="0.00" departed="1" arrived="0" entered="0" left="0" laneChangedFrom="0" laneChangedTo="0"/>
        <edge id="21186_op" sampledSeconds="0.00" departed="5" arrived="0" entered="0" left="0" laneChangedFrom="0" laneChangedTo="0"/>
        <edge id="21186_sa" sampledSeconds="0.11" traveltime